<?xml version="1.0" encoding="UTF-8"?>
<gas name="ethane" version="1.0">
  <section name="parameters">
    <!-- [v]=m3/kg [p]=MPa [t]=K -->
    <group name="constants">
      <subgroup name="critical_point">
        <parameter name="volume"> 0.0049 </parameter>
        <parameter name="pressure"> 4.871 </parameter>
        <parameter name="temperature"> 305.33 </parameter>
      </subgroup>
      <subgroup name="const_parameters">
        <parameter name="molec_mass"> 30.07 </parameter>
        <parameter name="acentric"> 0.105 </parameter>
      </subgroup>
    </group>
    <group name="dynamics">
      <subgroup name="point">
        <parameter name="volume"> 0.7528 </parameter>        
        <parameter name="pressure"> 0.1 </parameter>
        <parameter name="temperature"> 275 </parameter>
      </subgroup>
      <subgroup name="capacities">
        <!-- cp by Wiki, cv by Mayer law -->
        <!-- http://www.peacesoftware.de/einigewerte/ethan_e.html -->
        <parameter name="heat_cap_vol"> 1383 </parameter>
        <parameter name="heat_cap_pres"> 1670 </parameter>
      </subgroup>
    </group>
  </section>
  <section name="data">
    <group name="chemestry">
      <subgroup name="data">
        <parameter name="formula"> C2H6 </parameter>
        <parameter name="image_url"> Ethane-A-3D-balls.png </parameter>
      </subgroup>
    </group>
  </section>
</gas>
