<?xml version="1.0" encoding="UTF-8"?>
<gas name="hydrogen_sulfide" version="1.0">
  <section name="parameters">
    <!-- [v]=m3/kg [p]=MPa [t]=K -->
    <group name="constants">
      <subgroup name="critical_point">
        <parameter name="volume"> 0.00288 </parameter>
        <parameter name="pressure"> 8970000 </parameter>
        <parameter name="temperature"> 373.3 </parameter>
        <parameter name="compress_factor"> </parameter>
      </subgroup>
      <subgroup name="const_parameters">
        <parameter name="molec_mass"> 34.08 </parameter>
        <parameter name="acentric"> 0.081 </parameter>
      </subgroup>
    </group>
    <group name="dynamics">
      <subgroup name="point">
        <parameter name="volume"> 0.0 </parameter>
        <parameter name="pressure"> 100000 </parameter>
        <parameter name="temperature"> 298 </parameter>
      </subgroup>
      <subgroup name="capacities">
        <parameter name="heat_cap_vol"> </parameter>
        <parameter name="heat_cap_pres"> 1010 </parameter>
      </subgroup>
      <subgroup name="potentials">
        <parameter name="internal_energy"> </parameter>
      </subgroup>
    </group>
  </section>
  <section name="data">
    <group name="chemestry">
      <subgroup name="data">
        <parameter name="formula"> H2S </parameter>
        <parameter name="image_url"> !!! </parameter>
      </subgroup>
    </group>
  </section>
</gas>
