<?xml version="1.0" encoding="UTF-8"?>
<gas name="n_butane" version="1.0">
  <section name="parameters">
    <!-- [v]=m3/kg [p]=MPa [t]=K -->
    <group name="constants">
      <subgroup name="critical_point">
        <parameter name="volume"> 0.0 </parameter>
        <parameter name="pressure"> 3800000 </parameter>
        <parameter name="temperature"> 425.0 </parameter>
        <parameter name="compress_factor"> 0.274 </parameter>
      </subgroup>
      <subgroup name="const_parameters">
        <parameter name="molec_mass"> 58.123 </parameter>
        <parameter name="acentric"> 0.193 </parameter>
      </subgroup>
    </group>
    <group name="dynamics">
      <subgroup name="point">
        <!-- Если оставить пустым то словим ошибку  -->
        <parameter name="volume"> 1.42 </parameter>
        <parameter name="pressure"> 100000 </parameter>
        <parameter name="temperature"> 288 </parameter>
      </subgroup>
      <subgroup name="capacities">
        <parameter name="heat_cap_vol"> </parameter>
        <parameter name="heat_cap_pres"> 1580 </parameter>
      </subgroup>
      <subgroup name="potentials">
        <parameter name="internal_energy"> </parameter>
      </subgroup>
    </group>
  </section>
  <section name="data">
    <group name="chemestry">
      <subgroup name="data">
        <parameter name="formula"> C4H10 </parameter>
        <parameter name="image_url"> !!! </parameter>
      </subgroup>
    </group>
  </section>
</gas>
