<?xml version="1.0" encoding="UTF-8"?>
<gas name="n_pentane" version="1.0">
  <section name="parameters">
    <!-- [v]=m3/kg [p]=MPa [t]=K -->
    <group name="constants">
      <subgroup name="critical_point">
        <parameter name="volume"> </parameter>
        <parameter name="pressure"> 3380000 </parameter>
        <parameter name="temperature"> 470.0 </parameter>
        <parameter name="compress_factor"> 0.262 </parameter>
      </subgroup>
      <subgroup name="const_parameters">
        <parameter name="molec_mass"> 72.0 </parameter>
        <parameter name="acentric"> 0.251 </parameter>
      </subgroup>
    </group>
    <group name="dynamics">
      <subgroup name="point">
        <parameter name="volume"> </parameter>        
        <parameter name="pressure"> 100000 </parameter>
        <parameter name="temperature"> 288 </parameter>
      </subgroup>
      <subgroup name="capacities">
        <parameter name="heat_cap_vol"> </parameter>
        <parameter name="heat_cap_pres"> 1680 </parameter>
      </subgroup>
      <subgroup name="potentials">
        <parameter name="internal_energy"> </parameter>
      </subgroup>
    </group>
  </section>
  <section name="data">
    <group name="chemestry">
      <subgroup name="data">
        <parameter name="formula"> C5H12 </parameter>
        <parameter name="image_url"> !!! </parameter>
      </subgroup>
    </group>
  </section>
</gas>
